<?xml version="1.0" encoding="UTF-8"?>

<!-- generated on Mon May  4 19:35:04 2020 by Eclipse SUMO Version 1.4.0
<configuration xmlns:xsi="http://www.w3.org/2001/XMLSchema-instance" xsi:noNamespaceSchemaLocation="http://sumo.dlr.de/xsd/sumoConfiguration.xsd">

    <input>
        <net-file value="single_lane/hello.net.xml"/>
        <route-files value="single_lane/hello_2.rou.xml"/>
        <additional-files value="single_lane/hello.det.xml"/>
    </input>

    <time>
        <begin value="0"/>
        <end value="100"/>
        <step-length value="0.1"/>
    </time>

    <traci_server>
        <remote-port value="8873"/>
    </traci_server>

    <gui_only>
        <gui-settings-file value="single_lane/hello.settings.xml"/>
        <tracker-interval value="0.1"/>
    </gui_only>

</configuration>
-->

<detector xmlns:xsi="http://www.w3.org/2001/XMLSchema-instance" xsi:noNamespaceSchemaLocation="http://sumo.dlr.de/xsd/det_e1_file.xsd">
    <interval begin="0.00" end="1.00" id="sensor" nVehContrib="0" flow="0.00" occupancy="0.00" speed="-1.00" harmonicMeanSpeed="-1.00" length="-1.00" nVehEntered="0"/>
    <interval begin="1.00" end="2.00" id="sensor" nVehContrib="0" flow="0.00" occupancy="0.00" speed="-1.00" harmonicMeanSpeed="-1.00" length="-1.00" nVehEntered="0"/>
    <interval begin="2.00" end="3.00" id="sensor" nVehContrib="0" flow="0.00" occupancy="0.00" speed="-1.00" harmonicMeanSpeed="-1.00" length="-1.00" nVehEntered="0"/>
    <interval begin="3.00" end="4.00" id="sensor" nVehContrib="0" flow="0.00" occupancy="0.00" speed="-1.00" harmonicMeanSpeed="-1.00" length="-1.00" nVehEntered="0"/>
    <interval begin="4.00" end="5.00" id="sensor" nVehContrib="0" flow="0.00" occupancy="0.00" speed="-1.00" harmonicMeanSpeed="-1.00" length="-1.00" nVehEntered="0"/>
    <interval begin="5.00" end="6.00" id="sensor" nVehContrib="0" flow="0.00" occupancy="0.00" speed="-1.00" harmonicMeanSpeed="-1.00" length="-1.00" nVehEntered="0"/>
    <interval begin="6.00" end="7.00" id="sensor" nVehContrib="0" flow="0.00" occupancy="0.00" speed="-1.00" harmonicMeanSpeed="-1.00" length="-1.00" nVehEntered="0"/>
    <interval begin="7.00" end="8.00" id="sensor" nVehContrib="0" flow="0.00" occupancy="0.00" speed="-1.00" harmonicMeanSpeed="-1.00" length="-1.00" nVehEntered="0"/>
    <interval begin="8.00" end="9.00" id="sensor" nVehContrib="0" flow="0.00" occupancy="0.00" speed="-1.00" harmonicMeanSpeed="-1.00" length="-1.00" nVehEntered="0"/>
    <interval begin="9.00" end="10.00" id="sensor" nVehContrib="0" flow="0.00" occupancy="0.00" speed="-1.00" harmonicMeanSpeed="-1.00" length="-1.00" nVehEntered="0"/>
    <interval begin="10.00" end="11.00" id="sensor" nVehContrib="0" flow="0.00" occupancy="0.00" speed="-1.00" harmonicMeanSpeed="-1.00" length="-1.00" nVehEntered="0"/>
    <interval begin="11.00" end="12.00" id="sensor" nVehContrib="0" flow="0.00" occupancy="0.00" speed="-1.00" harmonicMeanSpeed="-1.00" length="-1.00" nVehEntered="0"/>
    <interval begin="12.00" end="13.00" id="sensor" nVehContrib="0" flow="0.00" occupancy="0.00" speed="-1.00" harmonicMeanSpeed="-1.00" length="-1.00" nVehEntered="0"/>
    <interval begin="13.00" end="14.00" id="sensor" nVehContrib="0" flow="0.00" occupancy="0.00" speed="-1.00" harmonicMeanSpeed="-1.00" length="-1.00" nVehEntered="0"/>
    <interval begin="14.00" end="15.00" id="sensor" nVehContrib="1" flow="3600.00" occupancy="15.72" speed="31.80" harmonicMeanSpeed="31.80" length="5.00" nVehEntered="1"/>
    <interval begin="15.00" end="16.00" id="sensor" nVehContrib="0" flow="0.00" occupancy="0.00" speed="-1.00" harmonicMeanSpeed="-1.00" length="-1.00" nVehEntered="0"/>
    <interval begin="16.00" end="17.00" id="sensor" nVehContrib="0" flow="0.00" occupancy="0.00" speed="-1.00" harmonicMeanSpeed="-1.00" length="-1.00" nVehEntered="0"/>
    <interval begin="17.00" end="18.00" id="sensor" nVehContrib="1" flow="3600.00" occupancy="17.76" speed="28.15" harmonicMeanSpeed="28.15" length="5.00" nVehEntered="1"/>
    <interval begin="18.00" end="19.00" id="sensor" nVehContrib="1" flow="3600.00" occupancy="17.77" speed="28.14" harmonicMeanSpeed="28.14" length="5.00" nVehEntered="1"/>
    <interval begin="19.00" end="20.00" id="sensor" nVehContrib="1" flow="3600.00" occupancy="17.00" speed="29.41" harmonicMeanSpeed="29.41" length="5.00" nVehEntered="1"/>
    <interval begin="20.00" end="21.00" id="sensor" nVehContrib="1" flow="3600.00" occupancy="16.18" speed="30.91" harmonicMeanSpeed="30.91" length="5.00" nVehEntered="1"/>
    <interval begin="21.00" end="22.00" id="sensor" nVehContrib="0" flow="0.00" occupancy="0.00" speed="-1.00" harmonicMeanSpeed="-1.00" length="-1.00" nVehEntered="0"/>
    <interval begin="22.00" end="23.00" id="sensor" nVehContrib="0" flow="0.00" occupancy="0.00" speed="-1.00" harmonicMeanSpeed="-1.00" length="-1.00" nVehEntered="0"/>
    <interval begin="23.00" end="24.00" id="sensor" nVehContrib="0" flow="0.00" occupancy="5.50" speed="-1.00" harmonicMeanSpeed="-1.00" length="-1.00" nVehEntered="1"/>
    <interval begin="24.00" end="25.00" id="sensor" nVehContrib="1" flow="3600.00" occupancy="14.56" speed="24.93" harmonicMeanSpeed="24.93" length="5.00" nVehEntered="0"/>
    <interval begin="25.00" end="26.00" id="sensor" nVehContrib="1" flow="3600.00" occupancy="20.06" speed="24.92" harmonicMeanSpeed="24.92" length="5.00" nVehEntered="1"/>
    <interval begin="26.00" end="27.00" id="sensor" nVehContrib="1" flow="3600.00" occupancy="19.27" speed="25.95" harmonicMeanSpeed="25.95" length="5.00" nVehEntered="1"/>
    <interval begin="27.00" end="28.00" id="sensor" nVehContrib="1" flow="3600.00" occupancy="18.96" speed="26.38" harmonicMeanSpeed="26.38" length="5.00" nVehEntered="1"/>
    <interval begin="28.00" end="29.00" id="sensor" nVehContrib="0" flow="0.00" occupancy="18.44" speed="-1.00" harmonicMeanSpeed="-1.00" length="-1.00" nVehEntered="1"/>
    <interval begin="29.00" end="30.00" id="sensor" nVehContrib="1" flow="3600.00" occupancy="1.01" speed="25.71" harmonicMeanSpeed="25.71" length="5.00" nVehEntered="0"/>
    <interval begin="30.00" end="31.00" id="sensor" nVehContrib="1" flow="3600.00" occupancy="19.52" speed="25.62" harmonicMeanSpeed="25.62" length="5.00" nVehEntered="1"/>
    <interval begin="31.00" end="32.00" id="sensor" nVehContrib="1" flow="3600.00" occupancy="18.77" speed="26.64" harmonicMeanSpeed="26.64" length="5.00" nVehEntered="1"/>
    <interval begin="32.00" end="33.00" id="sensor" nVehContrib="1" flow="3600.00" occupancy="17.42" speed="28.71" harmonicMeanSpeed="28.71" length="5.00" nVehEntered="1"/>
    <interval begin="33.00" end="34.00" id="sensor" nVehContrib="1" flow="3600.00" occupancy="16.39" speed="30.51" harmonicMeanSpeed="30.51" length="5.00" nVehEntered="1"/>
    <interval begin="34.00" end="35.00" id="sensor" nVehContrib="1" flow="3600.00" occupancy="16.82" speed="29.73" harmonicMeanSpeed="29.73" length="5.00" nVehEntered="1"/>
    <interval begin="35.00" end="36.00" id="sensor" nVehContrib="1" flow="3600.00" occupancy="17.98" speed="27.81" harmonicMeanSpeed="27.81" length="5.00" nVehEntered="1"/>
    <interval begin="36.00" end="37.00" id="sensor" nVehContrib="0" flow="0.00" occupancy="0.00" speed="-1.00" harmonicMeanSpeed="-1.00" length="-1.00" nVehEntered="0"/>
    <interval begin="37.00" end="38.00" id="sensor" nVehContrib="1" flow="3600.00" occupancy="18.97" speed="26.35" harmonicMeanSpeed="26.35" length="5.00" nVehEntered="1"/>
    <interval begin="38.00" end="39.00" id="sensor" nVehContrib="1" flow="3600.00" occupancy="19.05" speed="26.25" harmonicMeanSpeed="26.25" length="5.00" nVehEntered="1"/>
    <interval begin="39.00" end="40.00" id="sensor" nVehContrib="1" flow="3600.00" occupancy="18.39" speed="27.18" harmonicMeanSpeed="27.18" length="5.00" nVehEntered="1"/>
    <interval begin="40.00" end="41.00" id="sensor" nVehContrib="1" flow="3600.00" occupancy="17.99" speed="27.79" harmonicMeanSpeed="27.79" length="5.00" nVehEntered="1"/>
    <interval begin="41.00" end="42.00" id="sensor" nVehContrib="1" flow="3600.00" occupancy="17.49" speed="28.59" harmonicMeanSpeed="28.59" length="5.00" nVehEntered="1"/>
    <interval begin="42.00" end="43.00" id="sensor" nVehContrib="0" flow="0.00" occupancy="10.05" speed="-1.00" harmonicMeanSpeed="-1.00" length="-1.00" nVehEntered="1"/>
    <interval begin="43.00" end="44.00" id="sensor" nVehContrib="1" flow="3600.00" occupancy="6.60" speed="30.03" harmonicMeanSpeed="30.03" length="5.00" nVehEntered="0"/>
    <interval begin="44.00" end="45.00" id="sensor" nVehContrib="1" flow="3600.00" occupancy="17.09" speed="29.25" harmonicMeanSpeed="29.25" length="5.00" nVehEntered="1"/>
    <interval begin="45.00" end="46.00" id="sensor" nVehContrib="1" flow="3600.00" occupancy="18.73" speed="26.69" harmonicMeanSpeed="26.69" length="5.00" nVehEntered="1"/>
    <interval begin="46.00" end="47.00" id="sensor" nVehContrib="0" flow="0.00" occupancy="0.00" speed="-1.00" harmonicMeanSpeed="-1.00" length="-1.00" nVehEntered="0"/>
    <interval begin="47.00" end="48.00" id="sensor" nVehContrib="1" flow="3600.00" occupancy="20.19" speed="24.77" harmonicMeanSpeed="24.77" length="5.00" nVehEntered="1"/>
    <interval begin="48.00" end="49.00" id="sensor" nVehContrib="1" flow="3600.00" occupancy="20.21" speed="24.74" harmonicMeanSpeed="24.74" length="5.00" nVehEntered="1"/>
    <interval begin="49.00" end="50.00" id="sensor" nVehContrib="1" flow="3600.00" occupancy="19.57" speed="25.56" harmonicMeanSpeed="25.56" length="5.00" nVehEntered="1"/>
    <interval begin="50.00" end="51.00" id="sensor" nVehContrib="1" flow="3600.00" occupancy="18.79" speed="26.61" harmonicMeanSpeed="26.61" length="5.00" nVehEntered="1"/>
    <interval begin="51.00" end="52.00" id="sensor" nVehContrib="0" flow="0.00" occupancy="14.16" speed="-1.00" harmonicMeanSpeed="-1.00" length="-1.00" nVehEntered="1"/>
    <interval begin="52.00" end="53.00" id="sensor" nVehContrib="1" flow="3600.00" occupancy="5.72" speed="27.81" harmonicMeanSpeed="27.81" length="5.00" nVehEntered="1"/>
    <interval begin="53.00" end="54.00" id="sensor" nVehContrib="1" flow="3600.00" occupancy="15.99" speed="27.94" harmonicMeanSpeed="27.94" length="5.00" nVehEntered="0"/>
    <interval begin="54.00" end="55.00" id="sensor" nVehContrib="1" flow="3600.00" occupancy="18.10" speed="27.63" harmonicMeanSpeed="27.63" length="5.00" nVehEntered="1"/>
    <interval begin="55.00" end="56.00" id="sensor" nVehContrib="1" flow="3600.00" occupancy="17.66" speed="28.32" harmonicMeanSpeed="28.32" length="5.00" nVehEntered="1"/>
    <interval begin="56.00" end="57.00" id="sensor" nVehContrib="1" flow="3600.00" occupancy="16.60" speed="30.11" harmonicMeanSpeed="30.11" length="5.00" nVehEntered="1"/>
    <interval begin="57.00" end="58.00" id="sensor" nVehContrib="1" flow="3600.00" occupancy="16.84" speed="29.69" harmonicMeanSpeed="29.69" length="5.00" nVehEntered="1"/>
    <interval begin="58.00" end="59.00" id="sensor" nVehContrib="1" flow="3600.00" occupancy="16.75" speed="29.85" harmonicMeanSpeed="29.85" length="5.00" nVehEntered="1"/>
    <interval begin="59.00" end="60.00" id="sensor" nVehContrib="1" flow="3600.00" occupancy="16.97" speed="29.46" harmonicMeanSpeed="29.46" length="5.00" nVehEntered="1"/>
    <interval begin="60.00" end="61.00" id="sensor" nVehContrib="1" flow="3600.00" occupancy="17.13" speed="29.20" harmonicMeanSpeed="29.20" length="5.00" nVehEntered="1"/>
    <interval begin="61.00" end="62.00" id="sensor" nVehContrib="0" flow="0.00" occupancy="10.28" speed="-1.00" harmonicMeanSpeed="-1.00" length="-1.00" nVehEntered="1"/>
    <interval begin="62.00" end="63.00" id="sensor" nVehContrib="1" flow="3600.00" occupancy="7.02" speed="28.91" harmonicMeanSpeed="28.91" length="5.00" nVehEntered="0"/>
    <interval begin="63.00" end="64.00" id="sensor" nVehContrib="1" flow="3600.00" occupancy="16.81" speed="29.74" harmonicMeanSpeed="29.74" length="5.00" nVehEntered="1"/>
    <interval begin="64.00" end="65.00" id="sensor" nVehContrib="1" flow="3600.00" occupancy="18.51" speed="27.02" harmonicMeanSpeed="27.02" length="5.00" nVehEntered="1"/>
    <interval begin="65.00" end="66.00" id="sensor" nVehContrib="1" flow="3600.00" occupancy="18.59" speed="26.90" harmonicMeanSpeed="26.90" length="5.00" nVehEntered="1"/>
    <interval begin="66.00" end="67.00" id="sensor" nVehContrib="1" flow="3600.00" occupancy="17.96" speed="27.83" harmonicMeanSpeed="27.83" length="5.00" nVehEntered="1"/>
    <interval begin="67.00" end="68.00" id="sensor" nVehContrib="0" flow="0.00" occupancy="4.61" speed="-1.00" harmonicMeanSpeed="-1.00" length="-1.00" nVehEntered="1"/>
    <interval begin="68.00" end="69.00" id="sensor" nVehContrib="1" flow="3600.00" occupancy="12.99" speed="28.41" harmonicMeanSpeed="28.41" length="5.00" nVehEntered="0"/>
    <interval begin="69.00" end="70.00" id="sensor" nVehContrib="1" flow="3600.00" occupancy="17.01" speed="29.39" harmonicMeanSpeed="29.39" length="5.00" nVehEntered="1"/>
    <interval begin="70.00" end="71.00" id="sensor" nVehContrib="1" flow="3600.00" occupancy="16.33" speed="30.62" harmonicMeanSpeed="30.62" length="5.00" nVehEntered="1"/>
    <interval begin="71.00" end="72.00" id="sensor" nVehContrib="1" flow="3600.00" occupancy="16.23" speed="30.80" harmonicMeanSpeed="30.80" length="5.00" nVehEntered="1"/>
    <interval begin="72.00" end="73.00" id="sensor" nVehContrib="1" flow="3600.00" occupancy="16.71" speed="29.92" harmonicMeanSpeed="29.92" length="5.00" nVehEntered="1"/>
    <interval begin="73.00" end="74.00" id="sensor" nVehContrib="0" flow="0.00" occupancy="18.15" speed="-1.00" harmonicMeanSpeed="-1.00" length="-1.00" nVehEntered="1"/>
    <interval begin="74.00" end="75.00" id="sensor" nVehContrib="1" flow="3600.00" occupancy="0.36" speed="27.02" harmonicMeanSpeed="27.02" length="5.00" nVehEntered="0"/>
    <interval begin="75.00" end="76.00" id="sensor" nVehContrib="1" flow="3600.00" occupancy="19.01" speed="26.31" harmonicMeanSpeed="26.31" length="5.00" nVehEntered="1"/>
    <interval begin="76.00" end="77.00" id="sensor" nVehContrib="1" flow="3600.00" occupancy="19.60" speed="25.51" harmonicMeanSpeed="25.51" length="5.00" nVehEntered="1"/>
    <interval begin="77.00" end="78.00" id="sensor" nVehContrib="0" flow="0.00" occupancy="18.50" speed="-1.00" harmonicMeanSpeed="-1.00" length="-1.00" nVehEntered="1"/>
    <interval begin="78.00" end="79.00" id="sensor" nVehContrib="1" flow="3600.00" occupancy="1.12" speed="25.48" harmonicMeanSpeed="25.48" length="5.00" nVehEntered="0"/>
    <interval begin="79.00" end="80.00" id="sensor" nVehContrib="1" flow="3600.00" occupancy="19.54" speed="25.59" harmonicMeanSpeed="25.59" length="5.00" nVehEntered="1"/>
    <interval begin="80.00" end="81.00" id="sensor" nVehContrib="1" flow="3600.00" occupancy="18.90" speed="26.45" harmonicMeanSpeed="26.45" length="5.00" nVehEntered="1"/>
    <interval begin="81.00" end="82.00" id="sensor" nVehContrib="1" flow="3600.00" occupancy="17.50" speed="28.57" harmonicMeanSpeed="28.57" length="5.00" nVehEntered="1"/>
    <interval begin="82.00" end="83.00" id="sensor" nVehContrib="1" flow="3600.00" occupancy="16.61" speed="30.09" harmonicMeanSpeed="30.09" length="5.00" nVehEntered="1"/>
    <interval begin="83.00" end="84.00" id="sensor" nVehContrib="1" flow="3600.00" occupancy="16.87" speed="29.64" harmonicMeanSpeed="29.64" length="5.00" nVehEntered="1"/>
    <interval begin="84.00" end="85.00" id="sensor" nVehContrib="0" flow="0.00" occupancy="10.04" speed="-1.00" harmonicMeanSpeed="-1.00" length="-1.00" nVehEntered="1"/>
    <interval begin="85.00" end="86.00" id="sensor" nVehContrib="1" flow="3600.00" occupancy="8.51" speed="26.97" harmonicMeanSpeed="26.97" length="5.00" nVehEntered="0"/>
    <interval begin="86.00" end="87.00" id="sensor" nVehContrib="1" flow="3600.00" occupancy="18.64" speed="26.82" harmonicMeanSpeed="26.82" length="5.00" nVehEntered="1"/>
    <interval begin="87.00" end="88.00" id="sensor" nVehContrib="1" flow="3600.00" occupancy="17.93" speed="27.88" harmonicMeanSpeed="27.88" length="5.00" nVehEntered="1"/>
    <interval begin="88.00" end="89.00" id="sensor" nVehContrib="1" flow="3600.00" occupancy="17.19" speed="29.09" harmonicMeanSpeed="29.09" length="5.00" nVehEntered="1"/>
    <interval begin="89.00" end="90.00" id="sensor" nVehContrib="1" flow="3600.00" occupancy="17.39" speed="28.76" harmonicMeanSpeed="28.76" length="5.00" nVehEntered="1"/>
    <interval begin="90.00" end="91.00" id="sensor" nVehContrib="1" flow="3600.00" occupancy="16.89" speed="29.61" harmonicMeanSpeed="29.61" length="5.00" nVehEntered="1"/>
    <interval begin="91.00" end="92.00" id="sensor" nVehContrib="1" flow="3600.00" occupancy="16.41" speed="30.47" harmonicMeanSpeed="30.47" length="5.00" nVehEntered="1"/>
    <interval begin="92.00" end="93.00" id="sensor" nVehContrib="0" flow="0.00" occupancy="14.78" speed="-1.00" harmonicMeanSpeed="-1.00" length="-1.00" nVehEntered="1"/>
    <interval begin="93.00" end="94.00" id="sensor" nVehContrib="1" flow="3600.00" occupancy="2.11" speed="29.61" harmonicMeanSpeed="29.61" length="5.00" nVehEntered="0"/>
    <interval begin="94.00" end="95.00" id="sensor" nVehContrib="1" flow="3600.00" occupancy="17.78" speed="28.13" harmonicMeanSpeed="28.13" length="5.00" nVehEntered="1"/>
    <interval begin="95.00" end="96.00" id="sensor" nVehContrib="1" flow="3600.00" occupancy="18.89" speed="26.47" harmonicMeanSpeed="26.47" length="5.00" nVehEntered="1"/>
    <interval begin="96.00" end="97.00" id="sensor" nVehContrib="1" flow="3600.00" occupancy="18.94" speed="26.39" harmonicMeanSpeed="26.39" length="5.00" nVehEntered="1"/>
    <interval begin="97.00" end="98.00" id="sensor" nVehContrib="0" flow="0.00" occupancy="3.64" speed="-1.00" harmonicMeanSpeed="-1.00" length="-1.00" nVehEntered="1"/>
    <interval begin="98.00" end="99.00" id="sensor" nVehContrib="1" flow="3600.00" occupancy="14.86" speed="27.03" harmonicMeanSpeed="27.03" length="5.00" nVehEntered="0"/>
    <interval begin="99.00" end="100.00" id="sensor" nVehContrib="1" flow="3600.00" occupancy="18.35" speed="27.24" harmonicMeanSpeed="27.24" length="5.00" nVehEntered="1"/>
    <interval begin="100.00" end="101.00" id="sensor" nVehContrib="1" flow="3600.00" occupancy="17.77" speed="28.14" harmonicMeanSpeed="28.14" length="5.00" nVehEntered="1"/>
    <interval begin="101.00" end="102.00" id="sensor" nVehContrib="1" flow="3600.00" occupancy="16.62" speed="30.08" harmonicMeanSpeed="30.08" length="5.00" nVehEntered="1"/>
    <interval begin="102.00" end="102.90" id="sensor" nVehContrib="1" flow="4000.00" occupancy="19.03" speed="29.19" harmonicMeanSpeed="29.19" length="5.00" nVehEntered="1"/>
</detector>
